500
 Atoms. Timestep: 0
1 4.34978 0.828973 1.00501
1 1.33441 0.195901 1.44955
1 0.0227221 2.86367 2.5552
1 1.68542 1.48899 0.42016
1 4.10077 3.51591 0.78837
1 0.519251 0.190335 0.349429
1 4.42637 2.99724 0.969474
1 0.788358 2.48412 2.25837
1 2.67678 4.62049 2.35775
1 0.745392 1.43236 0.931205
1 4.38345 2.77773 0.374264
1 4.12429 1.2267 1.81209
1 4.22938 1.80918 1.63261
1 1.74201 0.492467 3.00902
1 4.20415 3.04449 0.198679
1 1.26143 3.06104 1.02977
1 0.00614269 1.55006 0.78114
1 1.35705 1.60943 0.197032
1 4.59785 0.767467 2.66481
1 1.54954 1.27842 2.10968
1 1.02596 2.18872 1.74971
1 3.81755 4.2795 2.97705
1 0.535834 1.55842 2.5668
1 1.0732 1.21201 4.56104
1 3.23767 2.15801 3.24879
1 2.56108 1.43265 5.78533
1 2.37411 2.12241 5.77219
1 0.322519 3.26964 3.14142
1 1.60904 2.86536 3.22275
1 2.6102 4.18497 4.18286
1 3.82907 3.76758 5.73799
1 1.79104 1.778 4.49813
1 1.01671 3.85988 3.99191
1 2.01154 0.664758 5.16553
1 0.111296 3.14988 5.71241
1 3.41305 0.593785 4.87278
1 4.53577 2.03716 6.04395
1 1.85264 1.61746 5.7088
1 0.84182 4.29396 5.67334
1 2.50072 3.87361 3.60539
1 3.49849 3.78287 3.96952
1 1.42419 2.24941 4.87633
1 0.870199 0.549223 4.71959
1 2.76574 2.13223 4.57426
1 1.93408 2.1928 5.63475
1 2.68873 2.15543 6.18378
1 4.27792 4.08841 8.3188
1 0.676611 1.00695 6.20023
1 4.2823 3.77481 7.10961
1 1.40877 1.81391 7.07506
1 3.44898 3.64716 6.36983
1 3.06555 2.79693 8.66538
1 0.233462 4.10756 6.68475
1 1.19416 0.245753 7.30399
1 1.96713 3.02454 6.94799
1 4.14812 4.21754 6.20733
1 3.77288 2.34915 7.85934
1 1.4934 0.531339 9.21511
1 2.79827 3.48159 6.28994
1 3.5793 2.98232 9.1471
1 1.52714 3.84139 7.50722
1 3.40377 1.79806 8.8405
1 3.97852 1.16757 6.39976
1 0.323679 4.28144 7.87071
1 0.192744 3.86232 8.07992
1 0.724779 6.28203 0.0123597
1 1.41691 9.22931 2.66837
1 1.93167 7.89986 2.67805
1 0.447056 7.09129 2.58436
1 3.58132 9.18366 2.67879
1 4.61846 5.12813 1.57414
1 2.38145 5.4075 0.667377
1 2.96722 4.97573 0.861384
1 0.317315 8.25013 0.896294
1 3.95185 5.80408 0.58825
1 2.22866 7.41358 1.92785
1 2.42343 8.3729 2.80205
1 1.65555 8.00822 2.72499
1 1.3919 4.92402 0.730853
1 4.45842 5.62751 0.532985
1 2.3876 7.02738 0.838059
1 2.66978 7.25351 1.88308
1 4.5592 7.65053 0.0150495
1 0.820971 5.18912 0.493806
1 2.30616 6.45422 0.41414
1 3.51907 7.55265 0.390989
1 3.81659 6.66871 0.0671569
1 1.99939 8.9905 1.13287
1 0.0142847 8.96872 4.87204
1 1.63954 6.96491 4.67631
1 4.12348 6.07998 6.1356
1 4.25282 7.56509 6.0449
1 4.42835 8.65731 3.42961
1 3.15602 7.16299 5.80704
1 1.39683 4.62329 3.14119
1 1.19614 5.9457 4.93219
1 2.35615 5.41978 3.71918
1 2.10327 7.67603 3.3119
1 1.61206 7.36092 4.34158
1 1.90907 7.09314 5.84816
1 1.59839 8.76961 4.98383
1 3.41682 8.60626 5.05004
1 2.71264 6.41705 4.3825
1 4.25487 4.94295 4.66042
1 1.11748 5.74102 3.97685
1 0.761222 8.64364 4.69889
1 0.682995 6.59797 3.73231
1 4.50801 7.01765 3.69948
1 0.856231 6.14888 8.58425
1 3.5526 7.28898 6.28668
1 1.97461 8.54812 7.8302
1 2.62895 5.08786 8.75554
1 3.33434 9.03539 6.8205
1 1.32702 5.31051 6.86172
1 4.08942 6.93426 7.31348
1 1.49603 7.90888 6.33022
1 1.75052 4.87721 8.98335
1 3.29402 6.27587 7.36636
1 4.28805 7.99479 8.16488
1 0.51306 7.08223 7.43833
1 3.47282 6.87545 8.0566
1 4.18032 9.21247 6.22872
1 3.88412 4.65215 7.56454
1 5.40424 1.35211 1.81408
1 4.93829 0.219084 2.81243
1 5.7234 3.58857 1.64615
1 5.04619 1.78122 3.02317
1 7.55335 3.00286 3.02912
1 7.05721 2.93117 0.00360228
1 6.64619 0.607977 3.03547
1 5.61894 4.38335 1.18904
1 4.62883 3.78434 0.848975
1 5.31949 0.543584 2.39977
1 8.16231 3.97745 1.55981
1 7.41296 0.780085 2.10302
1 5.01045 1.93793 2.16016
1 5.75679 0.808596 0.583148
1 8.50713 3.08747 1.37532
1 8.95698 1.64854 1.12291
1 6.85099 3.69146 2.18107
1 8.65343 2.94936 0.539033
1 5.79541 2.8631 2.17131
1 9.01703 3.28828 2.23958
1 4.73723 4.53019 0.768317
1 7.73641 1.20795 1.04652
1 6.65625 3.18542 2.08566
1 9.21057 1.94939 0.770757
1 8.07743 1.12044 0.0248366
1 5.66782 3.23702 0.384256
1 5.48395 0.620606 2.66004
1 6.01929 3.1204 0.238089
1 7.5786 2.02259 1.41885
1 7.83176 4.35052 3.99173
1 8.20735 2.92323 5.11323
1 7.4235 2.34626 5.53642
1 8.51204 2.35502 4.8397
1 7.18039 2.41822 3.92059
1 4.82778 1.12347 4.76653
1 6.01918 1.15426 4.4962
1 7.59408 3.39345 4.03214
1 7.28282 4.53982 5.43108
1 6.07484 2.91709 3.68819
1 5.27988 0.519574 5.62688
1 8.49332 2.00192 5.40377
1 8.42351 2.83182 3.50841
1 6.88394 2.86158 4.44796
1 5.72162 1.35838 5.47586
1 8.5913 3.36162 5.26485
1 7.81501 0.287419 5.00005
1 8.54332 1.18129 5.88149
1 9.23145 1.60316 5.7395
1 6.17832 4.21249 4.51094
1 6.0764 1.47611 5.78508
1 5.18698 1.5046 3.9947
1 4.66667 1.85881 3.62479
1 7.9224 2.49631 3.71765
1 7.52805 2.95589 8.58205
1 8.98946 2.07252 8.67827
1 8.98333 0.84587 7.65597
1 5.47354 1.23365 7.7148
1 5.74028 0.707743 6.54128
1 7.38565 3.97008 7.26662
1 5.61894 4.43429 6.75984
1 8.38941 2.93112 8.41351
1 7.55267 0.692477 8.81627
1 9.11053 3.18086 8.78224
1 7.71434 0.106026 7.02355
1 5.74629 0.0170157 8.6459
1 9.0028 4.47502 7.17373
1 5.71569 3.45135 6.45774
1 8.23439 4.39867 8.94817
1 7.40579 0.512616 8.85398
1 6.99493 0.779306 7.51007
1 5.83327 1.19622 7.23601
1 7.68429 3.42125 9.14894
1 7.77058 2.26779 8.77784
1 4.87958 2.58454 7.46884
1 6.81915 4.70183 1.23052
1 7.29619 7.22267 1.23571
1 5.28251 7.75183 1.55982
1 7.08942 8.12695 1.40151
1 8.26474 6.07249 0.533889
1 4.85079 8.69178 0.33908
1 7.14973 4.82227 0.825504
1 7.08723 8.31171 0.521015
1 6.54422 6.2569 2.98974
1 8.13437 5.83656 1.03415
1 5.61346 4.70964 2.98531
1 7.07349 8.42286 1.17535
1 7.02984 5.16657 0.456394
1 6.96499 5.97017 0.257969
1 4.67029 7.31069 1.45522
1 7.07721 6.30035 2.8728
1 7.55909 6.98531 5.57685
1 8.84222 4.97817 4.85831
1 5.8518 7.56932 3.19467
1 8.03593 6.21417 5.86528
1 7.50026 7.38564 3.78183
1 8.71407 5.20812 5.4933
1 8.72579 7.97747 3.6483
1 8.97333 8.38959 5.94188
1 6.78303 7.81917 5.43802
1 5.1828 5.15301 3.72228
1 6.67397 5.1812 5.94356
1 6.28518 6.79943 6.0679
1 9.15299 4.97207 3.99312
1 6.20601 7.40829 5.41842
1 6.00747 7.8141 3.42394
1 8.85104 5.24328 4.80229
1 7.05197 7.27838 3.76503
1 9.2015 6.77066 3.23258
1 5.78678 5.76313 5.77371
1 5.3374 5.71523 4.88218
1 8.54353 4.66573 4.58611
1 6.16372 8.33171 3.71611
1 4.89866 9.04568 3.97564
1 6.29079 8.58863 4.58029
1 5.07617 6.37486 7.19233
1 7.70197 4.78418 7.82034
1 5.77478 7.46836 7.40335
1 4.66323 8.80889 8.65161
1 7.80284 8.3171 7.8765
1 6.9182 5.49376 8.28927
1 5.01727 5.70996 8.80989
1 7.97542 6.1203 8.98796
1 7.55849 6.11914 7.90459
1 7.72576 7.04644 6.80265
1 4.93967 4.88145 6.34583
1 7.19661 6.95183 6.72501
1 8.14368 5.24574 9.16668
2 3.94992 1.19432 3.06536
2 0.709037 0.556273 3.02894
2 1.27736 2.68591 0.942741
2 4.53635 2.56054 1.62657
2 1.56489 0.331292 2.80328
2 0.47532 1.41477 1.0857
2 3.86923 3.98193 3.00753
2 3.08964 0.883423 0.939482
2 3.62721 3.93463 3.06806
2 3.76138 3.31623 0.51519
2 0.656205 0.0858589 0.879334
2 4.61487 0.241095 2.96265
2 3.84377 1.23705 0.124047
2 1.27739 3.30857 1.07406
2 0.619052 4.27662 0.825243
2 1.75486 3.83387 1.3942
2 4.55956 4.42792 1.43116
2 3.55773 0.938946 0.407769
2 1.58214 3.76174 0.0512965
2 3.58192 0.778368 0.979147
2 3.75204 3.50405 4.7197
2 3.03905 1.0757 6.16108
2 0.855385 1.17358 5.76148
2 4.49946 2.00896 3.43935
2 1.69636 0.45564 3.45248
2 0.726639 0.558487 3.261
2 0.617788 1.52716 4.018
2 1.56387 1.63993 4.35974
2 1.23173 3.13557 5.63951
2 0.0288605 4.34124 5.17726
2 3.85551 4.5282 4.29289
2 4.46157 3.07054 3.50412
2 0.214725 3.50732 4.16961
2 3.27678 2.97594 3.59326
2 0.750496 4.0136 8.37719
2 1.33832 1.20447 7.11587
2 3.31803 2.92062 7.46594
2 1.06732 4.05968 6.19622
2 1.41874 3.10161 8.04247
2 1.52603 3.56973 8.61654
2 0.156357 2.4394 8.67447
2 0.924809 3.16257 6.4177
2 0.173918 1.75341 7.17372
2 4.53258 3.92886 7.78788
2 3.60069 1.89759 8.30658
2 3.64416 2.28472 6.5986
2 1.95505 3.3849 8.352
2 3.34703 0.480067 7.23302
2 2.60072 2.01203 8.88206
2 2.04748 3.79309 9.18771
2 0.661739 0.642842 6.60183
2 0.79835 4.02245 9.20606
2 2.39717 1.39049 9.02891
2 0.472194 4.33031 6.44648
2 1.42515 9.05266 1.24841
2 0.802817 5.14626 1.16734
2 3.06025 6.15842 2.52751
2 0.351995 8.71487 0.117968
2 4.5752 8.38491 1.14812
2 1.17745 6.10883 1.07847
2 0.171602 9.0522 2.65783
2 0.447178 9.14571 2.7276
2 1.92281 6.93011 2.30403
2 0.124769 7.72487 1.29735
2 4.47992 6.33492 1.45829
2 2.16215 8.22488 1.8181
2 1.8239 8.55168 2.98794
2 2.26318 5.17607 2.95361
2 4.4167 6.88778 2.69256
2 3.96733 7.22717 2.92682
2 2.40616 4.68583 0.335168
2 3.23745 7.59117 0.668253
2 2.20265 4.78824 2.02686
2 4.37642 4.74534 2.18264
2 3.02232 6.59793 2.94448
2 2.78697 7.62099 2.69777
2 0.746723 5.31963 2.9455
2 2.46797 8.1074 5.57546
2 1.05594 6.9066 4.53572
2 0.436105 7.92589 5.7061
2 2.18672 5.16467 5.51293
2 2.83469 5.38362 6.09506
2 2.19443 5.24061 6.13245
2 3.20615 8.43845 4.2626
2 2.09896 9.24152 4.50582
2 1.81619 8.46156 4.38921
2 1.7106 8.78934 3.63599
2 4.59603 7.27074 4.80337
2 0.965703 6.37313 5.7274
2 1.73571 5.55127 4.16845
2 3.67621 4.65474 4.85471
2 2.45151 8.77007 3.38247
2 3.1616 8.63037 3.57911
2 4.26048 6.73845 7.27542
2 4.36176 8.06681 7.52941
2 3.1328 5.22637 7.09642
2 3.53816 4.88311 6.51654
2 4.51901 7.06126 6.17691
2 2.79242 6.90242 8.31668
2 2.24296 7.43157 8.4173
2 1.42726 7.65312 6.57126
2 2.4541 6.09873 6.91709
2 1.46617 5.19282 7.12668
2 1.87213 5.69128 9.21323
2 3.35679 7.29506 6.8278
2 1.81837 8.11089 8.81824
2 0.506444 6.8073 8.91446
2 2.72206 7.65709 8.4819
2 4.23147 9.17957 7.99186
2 4.46724 5.91498 6.44133
2 2.53434 5.01189 7.72355
2 0.828794 7.24402 8.70848
2 1.48993 6.99428 8.28911
2 3.42114 7.21094 7.34018
2 1.21721 8.7356 6.54484
2 0.949314 8.25716 8.05871
2 7.62855 0.357036 0.98792
2 7.84653 3.02486 2.98884
2 5.74818 4.09354 2.1613
2 7.18632 0.412578 0.776506
2 8.2475 2.83783 2.7428
2 7.32551 0.897209 1.52298
2 7.78702 1.29271 1.9096
2 6.89985 2.02427 1.92599
2 5.20901 1.92585 2.57051
2 7.42403 1.93066 0.218481
2 7.21508 2.99568 2.54945
2 6.64619 0.612752 0.0910197
2 6.85764 4.52524 0.685296
2 5.05114 1.70463 0.848831
2 8.903 0.33555 0.409079
2 8.44283 3.95096 0.170094
2 6.01826 4.2711 0.435681
2 4.97683 0.777867 1.8057
2 7.7798 0.197038 2.06864
2 8.0589 4.02757 2.6622
2 8.34653 3.1908 0.189426
2 8.04735 4.06103 1.20112
2 6.33173 3.24428 2.2093
2 6.14809 4.52702 2.95492
2 5.38565 3.12267 1.42742
2 5.5071 1.32038 4.71268
2 8.2579 2.09752 3.46618
2 8.72209 1.26487 5.393
2 8.143 2.96344 6.04821
2 8.27726 3.7807 4.45982
2 5.87613 0.618557 5.21178
2 7.9136 2.43646 5.37025
2 5.52528 1.887 5.90699
2 7.65493 0.0293498 3.32006
2 7.16497 2.06122 3.51698
2 5.23816 1.86768 4.89175
2 7.65567 3.16685 4.37382
2 8.24253 2.62559 4.00331
2 6.69625 0.630018 3.70379
2 4.98362 3.9627 3.27212
2 7.85267 4.60791 3.59647
2 5.01429 1.82917 4.70124
2 5.02034 1.80335 5.2553
2 8.46853 1.40022 6.12718
2 5.73708 2.40952 5.63486
2 6.31298 2.58717 5.34534
2 6.6413 1.5828 5.59475
2 6.28551 3.09322 5.64826
2 7.24869 3.94853 5.45332
2 6.45256 0.390301 5.39201
2 8.55487 1.07735 6.25351
2 7.90028 0.500483 8.31379
2 5.02866 2.97888 6.69859
2 5.71068 2.46307 8.88015
2 6.94442 2.30842 7.40414
2 8.71708 0.21885 8.11905
2 6.67599 2.2447 8.8884
2 6.0958 3.91565 7.66655
2 6.9399 0.378977 9.21878
2 7.53898 1.82226 8.73585
2 5.85981 3.62251 8.22185
2 7.36908 2.79084 7.94858
2 6.14181 0.78095 7.39745
2 7.18634 0.680856 7.63706
2 8.1627 1.36345 7.56005
2 8.29529 1.76995 7.77459
2 8.76556 1.5973 8.83823
2 9.01035 1.97844 8.18526
2 5.62483 1.73263 9.22238
2 7.13097 3.7869 6.9239
2 8.70888 1.04825 7.07925
2 8.77518 6.1375 2.15044
2 5.48643 5.20358 3.03787
2 8.99256 7.9586 0.781359
2 7.75601 6.97964 2.67684
2 8.33528 8.36244 2.60274
2 6.81993 8.5394 0.0622455
2 5.0026 8.77661 2.35978
2 7.91712 6.14026 2.41953
2 8.03317 6.02626 0.0948738
2 6.64762 6.06273 2.8882
2 6.05796 5.94487 0.209766
2 8.77585 8.02737 1.00752
2 8.7428 7.35748 2.00572
2 5.71482 7.2446 0.0563281
2 5.892 8.49778 3.03392
2 7.33573 6.18811 2.35928
2 7.01443 4.97359 1.86625
2 6.05581 6.78368 0.268564
2 8.08609 8.00433 2.10054
2 9.222 9.24419 3.06517
2 6.55074 4.9548 0.319503
2 8.83562 4.96138 0.111274
2 9.01783 7.48884 0.378731
2 5.08224 6.732 0.623581
2 8.33422 8.98338 1.6939
2 8.83642 9.2267 4.96493
2 7.40301 9.11171 4.51673
2 7.76157 8.12882 5.04168
2 9.21318 8.84558 6.01272
2 6.47061 7.90106 4.33089
2 4.88492 9.17932 3.78181
2 7.68821 4.62401 6.00911
2 7.00295 6.22241 5.69088
2 8.28137 8.17943 5.19083
2 5.70445 8.6991 3.11866
2 8.0529 4.746 4.06101
2 6.56081 7.81477 5.42546
2 8.1124 6.38026 5.41179
2 8.02332 6.87849 3.68651
2 7.95965 9.15688 5.53929
2 4.68411 8.4819 4.27459
2 6.84137 8.45883 4.88828
2 6.17304 7.86476 4.38546
2 6.69066 8.3928 4.3045
2 8.50414 8.35537 3.85277
2 6.19444 6.99317 8.26265
2 5.72534 8.42818 7.44803
2 9.14154 6.56622 6.24491
2 4.8171 6.41889 7.54002
2 6.51007 5.5157 7.20626
2 5.80161 5.28188 6.41197
2 5.20219 7.50791 6.53548
2 6.2099 8.03607 8.46502
2 6.04714 8.97062 9.08083
2 7.29113 5.49323 8.52906
2 6.11246 6.64163 7.12173
2 5.65862 5.67858 8.30601
2 6.31808 5.01357 8.25348
2 6.10642 6.74834 7.11538
2 4.82808 6.03272 6.9255
2 7.90008 6.34633 8.42844
2 8.81031 4.83815 8.98458
2 7.48802 5.06799 7.59228
500
 Atoms. Timestep: 710
1 4.40746 0.835241 9.21165
1 1.3697 0.717305 1.79319
1 0.40494 2.3047 2.40983
1 2.54765 1.30616 0.0731621
1 2.91372 3.06788 0.778067
1 0.606318 0.770975 8.81933
1 3.90151 2.61441 0.478217
1 1.4692 2.49322 2.65282
1 2.80037 3.6815 1.68841
1 0.987406 1.71899 0.781885
1 4.55393 2.01223 9.04863
1 3.2724 1.34725 1.70511
1 3.06339 1.98755 0.810618
1 2.89424 0.950482 3.24157
1 4.22135 2.95219 8.69743
1 0.902057 2.99256 1.67228
1 0.0308801 1.65948 0.302119
1 0.873223 1.85314 8.87408
1 5.19505 1.04105 2.58764
1 2.05232 1.53672 2.32814
1 1.21314 1.93233 1.7783
1 2.48598 4.02449 3.24002
1 1.04109 1.44311 2.73124
1 1.52254 0.910351 5.00483
1 3.02399 1.85233 2.60828
1 3.0581 1.45953 5.59008
1 3.42451 2.15401 4.74501
1 0.702804 3.26553 2.90751
1 1.5379 3.1151 3.58284
1 1.77369 4.09503 5.22912
1 3.43203 3.42047 5.93667
1 2.44383 1.54687 4.60479
1 1.20414 4.70666 4.51381
1 1.76256 0.250936 5.85388
1 0.394827 2.96272 5.64652
1 2.55925 0.570884 5.22616
1 4.50934 3.14865 6.46549
1 1.97805 1.33973 5.93564
1 1.37338 5.02309 5.56695
1 1.93154 3.9318 4.17646
1 3.3269 3.41077 3.7489
1 1.41653 1.909 4.50638
1 0.755268 0.0553292 4.64168
1 3.15752 1.9303 3.70457
1 2.09538 2.24513 5.3156
1 2.057 1.76498 7.29815
1 3.34223 4.4776 8.6086
1 0.883458 1.94217 7.70649
1 3.7731 3.81599 6.89879
1 1.19843 1.84553 6.61123
1 2.24006 4.62778 6.11705
1 2.69707 2.61801 7.57846
1 0.123958 3.78254 6.34045
1 1.56148 9.19173 7.7859
1 1.41465 2.7568 6.02899
1 5.39334 3.97881 7.02515
1 3.57266 2.77652 6.91618
1 1.51914 1.10532 0.134236
1 2.31001 3.27564 5.6609
1 3.71429 2.38613 7.91635
1 1.86021 4.48502 7.19493
1 3.56656 1.61587 9.18663
1 4.89631 1.14449 7.40687
1 9.03048 4.68522 7.44941
1 9.09314 3.87746 8.25955
1 0.390834 6.84176 0.486602
1 0.586749 9.09469 1.69727
1 1.20989 7.14041 2.66138
1 0.828609 6.05554 2.66641
1 2.51981 0.598321 1.93662
1 3.62693 4.55403 0.446813
1 1.72942 4.90969 0.290714
1 2.56394 4.56376 1.00799
1 0.0241377 8.81143 0.561558
1 2.79848 5.10402 0.03005
1 1.5446 7.71467 1.77887
1 3.39179 0.337158 2.47468
1 0.156698 7.35566 2.43882
1 1.51683 4.72759 1.36785
1 4.02159 5.28938 8.94195
1 1.30847 7.38776 0.708021
1 2.06308 6.86158 1.29644
1 3.55017 8.19719 0.558383
1 0.65171 5.12914 0.435095
1 2.14523 6.94658 0.179685
1 2.90124 7.72602 9.05886
1 2.98009 6.64889 8.78906
1 2.77829 8.79663 0.095857
1 0.232785 8.54612 3.84757
1 1.30474 7.16655 4.56732
1 4.29436 5.51521 6.07011
1 4.76858 8.51351 6.3446
1 5.70956 0.219968 3.23985
1 2.41322 7.42186 5.98028
1 1.01705 4.15184 3.55205
1 0.851669 6.00724 5.86463
1 2.27345 4.96787 4.88281
1 1.90425 7.96499 2.92089
1 1.06909 7.68417 3.61347
1 1.52326 6.82146 5.6216
1 1.79844 8.94624 4.903
1 3.83203 9.06246 6.37214
1 2.32866 6.97579 4.93301
1 5.51656 3.54382 6.01973
1 0.468229 5.31155 5.06603
1 0.948609 8.20838 4.60623
1 0.435836 6.7774 3.38432
1 6.66085 7.2462 5.75277
1 1.12846 5.5281 8.79272
1 4.7024 6.42491 6.49587
1 2.52842 0.473125 7.64699
1 2.15206 5.93177 8.99407
1 3.0455 8.71887 7.05387
1 1.50253 5.33784 6.59176
1 4.05913 6.99968 7.19651
1 1.68242 7.9069 5.35474
1 1.49958 3.3293 9.10025
1 2.88458 6.56833 7.6044
1 4.68759 7.42111 8.06591
1 0.95391 6.9281 7.52812
1 2.21212 7.19623 8.25515
1 4.8333 0.179915 6.919
1 2.90821 4.50156 7.55262
1 5.34378 1.35734 1.51442
1 4.68007 0.100853 2.75711
1 6.05548 3.0253 1.54902
1 4.99488 1.94521 3.19748
1 6.28779 2.30314 3.63998
1 6.56013 3.24273 9.06515
1 7.36162 0.433829 2.59726
1 4.71122 4.39097 0.71584
1 4.74902 3.31377 0.385903
1 5.49753 0.326283 1.80726
1 8.66128 4.25026 2.04476
1 8.03396 1.31189 2.3489
1 4.59513 1.86138 2.13504
1 4.97286 0.530413 0.856186
1 7.93652 3.24444 1.29545
1 8.64961 2.49494 0.738038
1 6.40542 4.98748 0.54566
1 9.11228 3.36251 1.16264
1 5.03397 2.79768 2.47395
1 9.13594 3.2459 2.20822
1 3.59407 3.57055 0.0387101
1 7.62952 2.1236 0.990103
1 6.96396 3.60977 1.78778
1 0.214941 2.19466 1.35444
1 8.21777 1.77187 0.076109
1 5.29993 3.22655 8.7104
1 6.27028 0.731479 2.48595
1 5.75639 2.70153 0.334098
1 6.90012 2.94639 0.851811
1 7.4505 4.20226 4.52014
1 8.76934 2.94582 4.93187
1 7.34325 2.32298 6.0929
1 0.417874 2.34628 4.77341
1 7.41827 1.00903 4.61199
1 3.59914 0.34638 5.45055
1 6.44907 1.40897 4.31868
1 7.15487 2.78644 3.17385
1 7.72955 4.42665 5.58507
1 5.38275 2.90756 3.59784
1 4.7214 0.209075 5.74374
1 0.0276878 1.86368 5.75205
1 8.96375 2.738 3.14842
1 6.83678 3.12728 4.18653
1 5.84992 1.41852 5.30495
1 8.57526 3.76207 5.63598
1 8.46801 1.0005 4.71412
1 7.86993 0.422342 5.49414
1 1.08745 1.88064 5.51994
1 6.34136 4.0998 4.33525
1 6.24116 1.87955 6.29513
1 5.8913 1.29347 3.40265
1 4.19474 1.78393 4.00628
1 8.05139 2.16948 3.05003
1 7.15426 2.85229 8.23573
1 8.88098 2.57247 8.89634
1 0.563007 0.698253 7.6758
1 5.25304 1.24609 8.45138
1 6.36448 0.803852 6.76505
1 7.90517 4.87502 7.16656
1 5.28316 4.51493 7.99051
1 8.93897 2.57117 7.77686
1 7.82142 1.06988 8.59663
1 9.00493 3.57814 0.0645719
1 8.65525 8.61117 7.33857
1 5.4471 0.383706 9.12116
1 8.53321 4.53725 6.38739
1 6.38156 2.89836 5.99003
1 8.18248 3.27015 8.23724
1 7.65217 0.0121523 8.89049
1 7.17504 1.52815 6.79305
1 5.89275 1.6501 7.37061
1 7.33902 3.90617 8.67233
1 8.00948 2.17026 8.35192
1 4.47443 2.04738 6.84839
1 7.13115 5.91225 0.487803
1 7.78578 6.89397 0.317076
1 4.65225 8.06861 0.654722
1 6.52379 8.00352 0.421034
1 8.94816 6.85554 1.31073
1 4.19381 9.09393 0.491996
1 7.9439 5.1815 0.720992
1 8.1464 8.87776 0.537922
1 7.7185 8.63516 2.3096
1 8.59527 5.32183 1.69613
1 4.61154 3.55121 3.14309
1 7.02222 9.0369 0.555117
1 7.2965 4.94416 9.13427
1 7.67183 6.94047 8.41272
1 2.71315 8.0522 2.14038
1 8.85121 6.06175 3.53737
1 8.57416 7.39371 5.74581
1 8.74376 4.85979 5.3625
1 5.55105 8.71102 2.45682
1 8.19136 6.66062 6.48164
1 8.42176 8.05035 4.00174
1 0.774697 6.01952 6.97617
1 0.161549 7.5196 4.16967
1 0.0425985 8.0978 6.31349
1 7.57925 7.55506 6.23889
1 5.48236 4.34634 5.28065
1 7.08572 4.56516 6.4923
1 6.80808 5.55766 6.89263
1 0.140083 4.57752 4.16306
1 7.08963 6.54678 6.51555
1 7.20451 8.49776 4.03935
1 8.85296 5.51396 4.4677
1 7.85558 9.01105 3.33073
1 8.67845 7.17654 3.2795
1 5.90273 4.58641 6.28861
1 5.40156 5.47057 5.8726
1 8.56507 4.0185 4.60729
1 6.11838 8.78867 4.01469
1 4.39798 0.201883 4.67643
1 5.2671 8.75455 5.02543
1 4.97028 6.42207 7.55042
1 8.15859 4.4413 8.13949
1 5.76748 7.13246 7.89798
1 4.95547 8.66996 9.04187
1 8.14035 7.81342 7.9705
1 6.45738 5.66004 8.91259
1 4.71944 5.49366 8.12984
1 8.44103 5.49805 7.9079
1 7.73843 6.01127 7.2376
1 8.46112 7.66404 6.87174
1 6.40052 3.68755 6.6992
1 7.56323 7.19319 7.27564
1 8.18326 4.28866 9.22424
2 3.44555 0.969972 4.44526
2 0.59392 0.302689 2.81134
2 1.93437 2.37072 0.407725
2 3.63521 2.50518 1.74074
2 1.82913 0.539596 2.8909
2 0.265191 1.12601 1.8644
2 3.55265 3.71806 2.5822
2 2.10858 1.40711 1.17084
2 2.5815 2.86294 2.97927
2 2.98548 2.63085 8.89184
2 0.63609 0.587896 0.755719
2 3.99238 1.25517 2.9339
2 4.06058 1.31752 8.17936
2 1.70952 3.64665 2.36887
2 0.584166 4.13771 1.88459
2 2.31478 2.5435 1.73375
2 3.91289 3.60666 1.19542
2 3.23094 0.463995 8.69171
2 1.82776 3.53085 1.05304
2 3.36317 0.695858 0.710807
2 4.52899 3.44874 5.31169
2 2.80425 0.555887 6.43162
2 0.726749 0.858583 6.02154
2 3.94734 2.54133 3.01549
2 2.22444 0.495272 4.09849
2 1.06465 0.949969 3.83102
2 0.72117 2.22473 3.59261
2 2.00013 1.78167 3.47931
2 1.33949 3.07604 4.85408
2 0.467295 4.08793 5.22487
2 5.11688 3.98252 4.16477
2 4.33264 2.91649 4.19359
2 0.31462 3.34702 4.12052
2 2.45559 2.75792 4.29585
2 0.936773 4.29532 8.66351
2 1.57164 0.748994 6.93577
2 2.55355 2.35667 6.37921
2 1.30597 3.90874 6.28386
2 1.57915 2.86831 7.19412
2 2.08866 3.63277 8.05713
2 0.592399 2.75653 0.391831
2 0.710232 3.85176 7.41103
2 0.39557 2.7341 6.81621
2 4.60777 3.43098 7.67434
2 2.80449 1.56559 8.20925
2 3.28914 1.61675 7.07291
2 2.58971 3.60349 6.7996
2 3.70379 0.405062 7.40078
2 1.8183 2.37713 8.37213
2 3.3782 3.49929 7.99769
2 0.625234 8.85542 7.06117
2 0.779801 3.98368 0.626011
2 1.59926 1.09549 8.1936
2 0.421187 4.93055 6.27548
2 1.22221 8.62424 0.775838
2 1.23442 4.90235 2.64553
2 2.56864 5.81188 0.919563
2 0.579741 8.9042 8.38516
2 3.24503 8.92738 1.47053
2 0.843045 6.70016 1.62874
2 8.2488 7.46044 2.06759
2 8.79246 8.3277 2.89234
2 1.76329 5.83823 1.918
2 0.412806 7.85834 1.36121
2 3.19406 6.97064 0.727677
2 2.15862 0.21129 0.871315
2 0.809392 8.3118 2.60206
2 1.9794 5.06805 3.68431
2 3.80845 7.70998 1.60065
2 3.81929 8.47325 2.64095
2 2.48393 3.94414 0.00175543
2 2.38696 8.00302 0.937775
2 2.4351 4.71734 2.21899
2 3.5935 4.75808 1.63615
2 1.59553 6.50675 3.59737
2 1.82053 8.85315 1.98922
2 0.717269 5.52093 3.74925
2 2.72887 8.66315 5.77727
2 0.373131 6.42284 4.56637
2 1.20746 7.66499 6.49282
2 2.28016 5.83038 5.77692
2 3.181 6.57981 6.42761
2 2.57584 5.52305 7.03322
2 3.60809 7.84363 6.42109
2 3.07132 8.90448 4.56337
2 2.12641 7.98019 4.19991
2 1.3712 8.86926 3.66801
2 5.7071 7.98537 5.87365
2 0.501615 7.37558 5.42109
2 1.51238 5.91966 4.76211
2 2.95163 3.88975 4.85635
2 2.65985 8.86857 3.15556
2 3.78257 0.121842 3.58541
2 3.89349 5.79271 7.18419
2 4.22515 8.42248 7.42346
2 3.09278 5.56708 8.20784
2 3.38385 4.78441 6.38147
2 5.89221 6.34259 6.7426
2 1.75241 6.0689 7.88413
2 1.75909 8.0177 9.01888
2 2.57007 8.5693 8.1522
2 1.84484 6.56955 6.73651
2 0.918534 5.07439 7.65059
2 1.34207 6.0887 0.626072
2 2.47828 7.63296 7.14637
2 1.73048 0.0415672 8.93853
2 0.279618 6.06529 8.13703
2 3.81128 8.56913 8.68693
2 4.67032 0.190717 8.18828
2 4.628 4.35995 6.20108
2 2.05276 4.87161 8.34875
2 0.494166 7.88589 9.17333
2 1.15107 6.81977 8.76618
2 3.41516 7.56437 8.00599
2 1.89199 8.72518 6.74499
2 1.40004 8.00458 7.78529
2 7.44109 0.939808 0.479484
2 7.97534 3.37438 2.53065
2 5.09355 3.75363 1.72152
2 6.20744 0.675036 0.871618
2 8.45093 2.33829 1.93561
2 7.04852 1.20647 1.71513
2 8.49383 1.3159 1.16424
2 6.3192 1.96339 1.08823
2 5.92378 1.98958 2.37469
2 7.04178 2.0772 9.19612
2 7.13622 2.46309 2.02207
2 6.47123 0.945493 8.85695
2 5.84732 3.86296 0.596541
2 4.25974 1.57928 0.924914
2 8.71044 0.600393 0.0804081
2 8.92219 4.51975 0.886416
2 4.49458 4.15461 8.79835
2 4.29719 0.718822 1.81191
2 7.82048 0.255653 1.48453
2 8.98731 3.94344 3.18049
2 7.84313 3.04984 0.0924559
2 7.20118 4.05637 0.650635
2 6.15435 3.25001 2.73329
2 7.14726 3.99051 3.35409
2 5.00232 2.53475 1.25005
2 4.53389 1.31449 5.13573
2 9.07397 1.45518 3.00867
2 0.371678 1.19424 4.82109
2 8.54469 2.69971 6.13286
2 8.08967 3.1886 3.87855
2 5.93751 0.22469 5.77055
2 8.0276 1.99803 5.15932
2 5.2899 1.18308 6.31948
2 7.99737 0.984781 3.54551
2 6.99394 1.56483 2.97328
2 5.36099 1.9587 4.35352
2 7.43117 2.06674 4.06234
2 8.73896 2.02151 4.09617
2 5.69782 0.519629 4.53803
2 5.78718 3.13669 4.86435
2 8.22004 4.79199 3.74811
2 3.88146 2.29756 5.84057
2 4.05111 1.02452 6.3084
2 8.2286 1.36316 6.19268
2 5.20832 2.36181 5.73843
2 6.6949 2.25696 5.07518
2 6.9451 1.13502 5.69146
2 6.61763 3.97217 5.50941
2 7.60953 3.1973 5.11842
2 7.49651 0.347506 6.61924
2 8.86438 0.35902 6.71851
2 8.69462 0.31424 8.06846
2 5.50921 2.74061 6.92277
2 4.90641 2.25438 7.93456
2 6.71039 2.60851 7.12683
2 0.114052 7.75938 7.79133
2 6.01552 2.256 8.48733
2 7.32403 3.82709 7.50699
2 6.35448 8.86505 8.7972
2 6.99064 1.65756 7.94132
2 6.10607 3.44195 7.88465
2 8.56865 3.61797 7.17864
2 5.85152 0.457074 7.79741
2 7.15118 0.341402 7.84678
2 8.12471 1.25765 7.46257
2 7.9168 2.49628 7.21032
2 9.05982 1.52336 8.3431
2 0.652297 2.96455 8.34698
2 5.4476 1.52009 0.325166
2 7.55485 3.48282 6.33531
2 0.0370913 1.54619 6.9627
2 0.537692 5.43845 1.60132
2 6.62655 5.33724 5.67498
2 8.68034 8.5071 8.76715
2 7.60697 7.77475 3.16468
2 8.59828 0.298914 2.53553
2 7.56518 8.01664 9.09709
2 4.6126 8.76932 1.61923
2 9.20843 5.11646 2.77291
2 8.02493 5.88576 8.93006
2 7.95313 5.52641 2.7058
2 5.24632 6.42185 8.75041
2 8.60476 7.7589 0.620714
2 8.93189 6.29574 2.35481
2 5.5448 7.64758 9.02204
2 6.62345 9.06394 1.7318
2 7.9068 6.25558 1.37459
2 7.57917 4.64534 1.74679
2 6.63819 6.86867 9.04815
2 7.47815 8.12373 1.21389
2 9.10702 0.426757 3.86296
2 5.30219 5.13327 9.13004
2 8.95 5.85804 0.61151
2 8.81083 7.00302 8.84396
2 4.10108 7.36724 9.11745
2 8.70782 8.62085 1.61901
2 9.04209 0.229696 5.43551
2 6.8624 0.00688722 4.91008
2 7.72754 7.94252 5.04754
2 0.864943 8.72917 5.71718
2 6.43498 7.99749 4.83248
2 4.82985 0.844625 3.74298
2 7.81412 5.51342 6.14202
2 7.63408 6.61043 5.4268
2 9.02203 8.30362 5.00671
2 6.67748 8.70834 2.94683
2 7.72996 5.37537 4.84883
2 6.45899 7.54674 6.89903
2 8.87877 6.10658 5.58279
2 8.43314 6.88575 4.46031
2 8.23016 8.6022 6.08042
2 4.08348 8.47508 5.33401
2 6.90644 8.52586 5.9806
2 4.92295 8.75834 3.8189
2 6.82089 0.475784 3.68492
2 8.12316 9.11993 4.48545
2 6.78898 7.78877 8.11397
2 5.94341 8.81421 6.8601
2 0.131885 6.91553 6.57028
2 4.0163 6.42928 8.27912
2 6.32347 4.6174 7.41578
2 5.09195 5.24288 7.00131
2 5.12625 7.5085 6.94058
2 5.45077 8.36783 7.94805
2 5.65817 8.774 0.782368
2 7.21523 5.27863 8.03013
2 6.76989 6.48601 7.75694
2 5.86107 5.65909 7.90608
2 6.27762 4.42565 8.70769
2 7.46286 8.40238 7.16102
2 4.0936 4.62934 7.66658
2 8.59607 6.72355 7.61996
2 9.07829 4.9806 8.79341
2 8.86333 5.71235 6.83306
